 Q-Chem 5.1, Q-Chem, Inc., Pleasanton, CA (2018)
 Q-Chem 5.1.1 for Intel X86 EM64T Linux

User input:
--------------------------------------------------------------
$molecule
-1 1
C    0.00000000000000e+00   0.00000000000000e+00  -5.38358059804750e-01
N    0.00000000000000e+00   0.00000000000000e+00   4.61641940195250e-01
$end
$rem
jobtype sp
method HF
basis STO-3G
--------------------------------------------------------------

             Standard Nuclear Orientation (Angstroms)
    I     Atom           X                Y                Z
 ----------------------------------------------------------------
    1      C       0.0000000000     0.0000000000    -0.5384615385
    2      N       0.0000000000     0.0000000000     0.4615384615
 ----------------------------------------------------------------

    7     -90.8322075633      2.32e-07  Convergence criterion met
 Total energy in the final basis set =      -90.8322075633

                    Orbital Energies (a.u.)
 --------------------------------------------------------------

 Alpha MOs
 -- Occupied --
-14.839 -10.468  -0.811  -0.116  -0.074  -0.074   0.033

          Ground-State Mulliken Net Atomic Charges

     Atom                 Charge (a.u.)
  ----------------------------------------
      1 C                    -0.385594
      2 N                    -0.614406
  ----------------------------------------
  Sum of atomic charges =    -1.000000

                    Cartesian Multipole Moments
 -----------------------------------------------------------------
    Charge (ESU x 10^10)
                -4.8032
    Dipole Moment (Debye)
         X       0.0000      Y      -0.0000      Z       0.5542
       Tot       0.5542
    Quadrupole Moments (Debye-Ang)
        XX     -10.2140     XY      -0.0000     YY     -10.2140
        XZ       0.0000     YZ      -0.0000     ZZ     -14.6904

 Total job time:  0.93s(wall), 4.84s(cpu)
        *  Thank you very much for using Q-Chem.  Have a nice day.  *
