 Q-Chem 5.1, Q-Chem, Inc., Pleasanton, CA (2018)
 Q-Chem 5.1.1 for Intel X86 EM64T Linux

User input:
--------------------------------------------------------------
$molecule
-1 1
C    1.00000000000000e+00   0.00000000000000e+00   0.00000000000000e+00
N    2.00000000000000e+00   0.00000000000000e+00   0.00000000000000e+00
$end

$rem
jobtype opt
method wb97
basis cc-pvdz
GEOM_OPT_MAX_CYCLES 200
$end
--------------------------------------------------------------

   11     -92.7130711805      1.18e-09  Convergence criterion met
 Total energy in the final basis set =      -92.7130711805
   10     -92.8168337047      1.89e-09  Convergence criterion met
 Total energy in the final basis set =      -92.8168337047
    9     -92.8178956797      1.51e-09  Convergence criterion met
 Total energy in the final basis set =      -92.8178956797
    8     -92.8181437103      9.93e-09  Convergence criterion met
 Total energy in the final basis set =      -92.8181437103

             Standard Nuclear Orientation (Angstroms)
    I     Atom           X                Y                Z
 ----------------------------------------------------------------
    1      C       0.0000000000     0.0000000000    -0.6300330570
    2      N       0.0000000000     0.0000000000     0.5531099801
 ----------------------------------------------------------------

    7     -92.8181450462      4.56e-09  Convergence criterion met
 Total energy in the final basis set =      -92.8181450462
 Final energy is   -92.8181450462365
 **  OPTIMIZATION CONVERGED  **

                    Orbital Energies (a.u.)
 --------------------------------------------------------------

 Alpha MOs
 -- Occupied --
-13.919  -9.832  -0.708  -0.238  -0.141  -0.141  -0.106

          Ground-State Mulliken Net Atomic Charges

     Atom                 Charge (a.u.)
  ----------------------------------------
      1 C                    -0.663550
      2 N                    -0.336450
  ----------------------------------------
  Sum of atomic charges =    -1.000000

                    Cartesian Multipole Moments
 -----------------------------------------------------------------
    Charge (ESU x 10^10)
                -4.8032
    Dipole Moment (Debye)
         X      -0.0000      Y      -0.0000      Z       0.7254
       Tot       0.7254
    Quadrupole Moments (Debye-Ang)
        XX     -13.1264     XY      -0.0000     YY     -13.1264
        XZ       0.0000     YZ      -0.0000     ZZ     -17.8713

 Total job time:  16.32s(wall), 86.63s(cpu)
        *  Thank you very much for using Q-Chem.  Have a nice day.  *
