 Q-Chem 5.1, Q-Chem, Inc., Pleasanton, CA (2018)
 Q-Chem 5.1.1 for Intel X86 EM64T Linux

User input:
--------------------------------------------------------------
$molecule
-1 1
C    1.00000000000000e+00   0.00000000000000e+00   0.00000000000000e+00
N    2.00000000000000e+00   0.00000000000000e+00   0.00000000000000e+00
$end

$rem
jobtype opt
method HF
basis STO-3G
GEOM_OPT_MAX_CYCLES 200
$end
--------------------------------------------------------------

    9     -90.8322075675      7.66e-10  Convergence criterion met
 Total energy in the final basis set =      -90.8322075675
    8     -90.9376348427      1.19e-09  Convergence criterion met
 Total energy in the final basis set =      -90.9376348427
    6     -90.9376646881      2.49e-09  Convergence criterion met
 Total energy in the final basis set =      -90.9376646881

             Standard Nuclear Orientation (Angstroms)
    I     Atom           X                Y                Z
 ----------------------------------------------------------------
    1      C       0.0000000000     0.0000000000    -0.6195787756
    2      N       0.0000000000     0.0000000000     0.5426556987
 ----------------------------------------------------------------

    6     -90.9376700608      1.61e-09  Convergence criterion met
 Total energy in the final basis set =      -90.9376700608
 Final energy is   -90.9376700608474
 **  OPTIMIZATION CONVERGED  **

                    Orbital Energies (a.u.)
 --------------------------------------------------------------

 Alpha MOs
 -- Occupied --
-14.799 -10.452  -0.722  -0.135   0.008   0.008   0.045

          Ground-State Mulliken Net Atomic Charges

     Atom                 Charge (a.u.)
  ----------------------------------------
      1 C                    -0.410402
      2 N                    -0.589598
  ----------------------------------------
  Sum of atomic charges =    -1.000000

                    Cartesian Multipole Moments
 -----------------------------------------------------------------
    Charge (ESU x 10^10)
                -4.8032
    Dipole Moment (Debye)
         X      -0.0000      Y      -0.0000      Z       0.3982
       Tot       0.3982
    Quadrupole Moments (Debye-Ang)
        XX     -10.3183     XY      -0.0000     YY     -10.3183
        XZ      -0.0000     YZ       0.0000     ZZ     -15.2062

 Total job time:  2.96s(wall), 16.47s(cpu)
        *  Thank you very much for using Q-Chem.  Have a nice day.  *
