 Q-Chem 5.1, Q-Chem, Inc., Pleasanton, CA (2018)
 Q-Chem 5.1.1 for Intel X86 EM64T Linux

User input:
--------------------------------------------------------------
$molecule
0 1
C    0.00000000000000e+00   0.00000000000000e+00   0.00000000000000e+00
O    0.00000000000000e+00   0.00000000000000e+00   1.00000000000000e+00
O    0.00000000000000e+00   0.00000000000000e+00  -1.00000000000000e+00
$end
$rem
jobtype sp
method wb97
basis cc-pvdz
--------------------------------------------------------------

             Standard Nuclear Orientation (Angstroms)
    I     Atom           X                Y                Z
 ----------------------------------------------------------------
    1      C       0.0000000000     0.0000000000     0.0000000000
    2      O       0.0000000000     0.0000000000     1.0000000000
    3      O       0.0000000000     0.0000000000    -1.0000000000
 ----------------------------------------------------------------

    7    -188.3943871832      3.66e-06  Convergence criterion met
 Total energy in the final basis set =     -188.3943871832

                    Orbital Energies (a.u.)
 --------------------------------------------------------------

 Alpha MOs
 -- Occupied --
-19.043 -19.043 -10.268  -1.359  -1.320  -0.709  -0.709  -0.650
 -0.639  -0.481  -0.481

          Ground-State Mulliken Net Atomic Charges

     Atom                 Charge (a.u.)
  ----------------------------------------
      1 C                     0.135350
      2 O                    -0.067675
      3 O                    -0.067675
  ----------------------------------------
  Sum of atomic charges =    -0.000000

                    Cartesian Multipole Moments
 -----------------------------------------------------------------
    Charge (ESU x 10^10)
                -0.0000
    Dipole Moment (Debye)
         X      -0.0000      Y       0.0000      Z       0.0000
       Tot       0.0000
    Quadrupole Moments (Debye-Ang)
        XX     -13.5943     XY      -0.0000     YY     -13.5943
        XZ       0.0000     YZ       0.0000     ZZ     -17.8631

 Total job time:  1.97s(wall), 11.91s(cpu)
        *  Thank you very much for using Q-Chem.  Have a nice day.  *
