 Q-Chem 5.1, Q-Chem, Inc., Pleasanton, CA (2018)
 Q-Chem 5.1.1 for Intel X86 EM64T Linux

User input:
--------------------------------------------------------------
$molecule
0 1
C    0.00000000000000e+00   0.00000000000000e+00   0.00000000000000e+00
O    0.00000000000000e+00   0.00000000000000e+00   1.00000000000000e+00
O    0.00000000000000e+00   0.00000000000000e+00  -1.00000000000000e+00
$end
$rem
jobtype sp
method HF
basis STO-3G
--------------------------------------------------------------

             Standard Nuclear Orientation (Angstroms)
    I     Atom           X                Y                Z
 ----------------------------------------------------------------
    1      C       0.0000000000     0.0000000000     0.0000000000
    2      O       0.0000000000     0.0000000000     1.0000000000
    3      O       0.0000000000     0.0000000000    -1.0000000000
 ----------------------------------------------------------------

    7    -184.8257490397      1.28e-06  Convergence criterion met
 Total energy in the final basis set =     -184.8257490397

                    Orbital Energies (a.u.)
 --------------------------------------------------------------

 Alpha MOs
 -- Occupied --
-20.402 -20.402 -11.350  -1.598  -1.521  -0.770  -0.770  -0.674
 -0.631  -0.440  -0.440

          Ground-State Mulliken Net Atomic Charges

     Atom                 Charge (a.u.)
  ----------------------------------------
      1 C                     0.637973
      2 O                    -0.318987
      3 O                    -0.318987
  ----------------------------------------
  Sum of atomic charges =    -0.000000

                    Cartesian Multipole Moments
 -----------------------------------------------------------------
    Charge (ESU x 10^10)
                 0.0000
    Dipole Moment (Debye)
         X      -0.0000      Y      -0.0000      Z      -0.0000
       Tot       0.0000
    Quadrupole Moments (Debye-Ang)
        XX     -12.7919     XY      -0.0000     YY     -12.7919
        XZ       0.0000     YZ       0.0000     ZZ     -18.0751

 Total job time:  1.23s(wall), 4.76s(cpu)
        *  Thank you very much for using Q-Chem.  Have a nice day.  *
