 Q-Chem 5.1, Q-Chem, Inc., Pleasanton, CA (2018)
 Q-Chem 5.1.1 for Intel X86 EM64T Linux

User input:
--------------------------------------------------------------
$molecule
0 1
C    0.00000000000000e+00   0.00000000000000e+00   0.00000000000000e+00
O    1.00000000000000e+00   0.00000000000000e+00   0.00000000000000e+00
O   -1.00000000000000e+00   0.00000000000000e+00   0.00000000000000e+00
$end

$rem
jobtype opt
method HF
basis STO-3G
GEOM_OPT_MAX_CYCLES 200
$end
--------------------------------------------------------------

    9    -184.8257490851      9.89e-10  Convergence criterion met
 Total energy in the final basis set =     -184.8257490851
    9    -185.0381802151      2.69e-10  Convergence criterion met
 Total energy in the final basis set =     -185.0381802151
    8    -185.0628529110      2.63e-09  Convergence criterion met
 Total energy in the final basis set =     -185.0628529110
    8    -185.0681431482      1.22e-09  Convergence criterion met
 Total energy in the final basis set =     -185.0681431482
    8    -185.0683878443      1.46e-10  Convergence criterion met
 Total energy in the final basis set =     -185.0683878443

             Standard Nuclear Orientation (Angstroms)
    I     Atom           X                Y                Z
 ----------------------------------------------------------------
    1      C       0.0000000000     0.0000000000     0.0000000000
    2      O       0.0000000000     0.0000000000     1.1879071532
    3      O       0.0000000000     0.0000000000    -1.1879071532
 ----------------------------------------------------------------

    7    -185.0683905612      1.26e-09  Convergence criterion met
 Total energy in the final basis set =     -185.0683905612
 Final energy is   -185.068390561172
 **  OPTIMIZATION CONVERGED  **

                    Orbital Energies (a.u.)
 --------------------------------------------------------------

 Alpha MOs
 -- Occupied --
-20.357 -20.357 -11.263  -1.433  -1.368  -0.681  -0.621  -0.621
 -0.583  -0.388  -0.388

          Ground-State Mulliken Net Atomic Charges

     Atom                 Charge (a.u.)
  ----------------------------------------
      1 C                     0.443898
      2 O                    -0.221949
      3 O                    -0.221949
  ----------------------------------------
  Sum of atomic charges =     0.000000

                    Cartesian Multipole Moments
 -----------------------------------------------------------------
    Charge (ESU x 10^10)
                 0.0000
    Dipole Moment (Debye)
         X      -0.0000      Y      -0.0000      Z       0.0000
       Tot       0.0000
    Quadrupole Moments (Debye-Ang)
        XX     -13.0961     XY       0.0000     YY     -13.0961
        XZ       0.0000     YZ      -0.0000     ZZ     -18.3451

 Total job time:  2.93s(wall), 20.51s(cpu)
        *  Thank you very much for using Q-Chem.  Have a nice day.  *
