 Q-Chem 5.1, Q-Chem, Inc., Pleasanton, CA (2018)
 Q-Chem 5.1.1 for Intel X86 EM64T Linux

User input:
--------------------------------------------------------------
$molecule
0 1
C    0.00000000000000e+00   0.00000000000000e+00   0.00000000000000e+00
O    1.00000000000000e+00   0.00000000000000e+00   0.00000000000000e+00
O   -1.00000000000000e+00   0.00000000000000e+00   0.00000000000000e+00
$end

$rem
jobtype opt
method wb97
basis cc-pvdz
GEOM_OPT_MAX_CYCLES 200
$end
--------------------------------------------------------------

   10    -188.3943871560      5.49e-09  Convergence criterion met
 Total energy in the final basis set =     -188.3943871560
    9    -188.5521002343      3.87e-09  Convergence criterion met
 Total energy in the final basis set =     -188.5521002343
    9    -188.5634690908      1.53e-09  Convergence criterion met
 Total energy in the final basis set =     -188.5634690908
    9    -188.5656885109      1.15e-09  Convergence criterion met
 Total energy in the final basis set =     -188.5656885109
    8    -188.5657447574      4.03e-09  Convergence criterion met
 Total energy in the final basis set =     -188.5657447574

             Standard Nuclear Orientation (Angstroms)
    I     Atom           X                Y                Z
 ----------------------------------------------------------------
    1      C       0.0000000000     0.0000000000     0.0000000000
    2      O       0.0000000000     0.0000000000     1.1657611996
    3      O       0.0000000000     0.0000000000    -1.1657611996
 ----------------------------------------------------------------

    7    -188.5657450557      3.76e-09  Convergence criterion met
 Total energy in the final basis set =     -188.5657450557
 Final energy is   -188.565745055677
 **  OPTIMIZATION CONVERGED  **

                    Orbital Energies (a.u.)
 --------------------------------------------------------------

 Alpha MOs
 -- Occupied --
-19.089 -19.089 -10.338  -1.294  -1.246  -0.684  -0.641  -0.641
 -0.634  -0.477  -0.477

          Ground-State Mulliken Net Atomic Charges

     Atom                 Charge (a.u.)
  ----------------------------------------
      1 C                     0.267106
      2 O                    -0.133553
      3 O                    -0.133553
  ----------------------------------------
  Sum of atomic charges =    -0.000000

                    Cartesian Multipole Moments
 -----------------------------------------------------------------
    Charge (ESU x 10^10)
                -0.0000
    Dipole Moment (Debye)
         X       0.0000      Y      -0.0000      Z      -0.0000
       Tot       0.0000
    Quadrupole Moments (Debye-Ang)
        XX     -14.4691     XY       0.0000     YY     -14.4691
        XZ       0.0000     YZ       0.0000     ZZ     -18.8658

 Total job time:  13.99s(wall), 102.71s(cpu)
        *  Thank you very much for using Q-Chem.  Have a nice day.  *
